# vtk DataFile Version 2.0
step 0 time 0.000000e+00 normalized time 0.000000e+00, generated by test_simplify_2d.py
ASCII
DATASET UNSTRUCTURED_GRID

POINTS 18 float
-5.000000e-01 -1.000000e+00 0.000000e+00
-5.000000e-01 -5.000000e-01 0.000000e+00
-5.000000e-01 0.000000e+00 0.000000e+00
-5.000000e-01 5.000000e-01 0.000000e+00
-5.000000e-01 1.000000e+00 0.000000e+00
0.000000e+00 -1.000000e+00 0.000000e+00
0.000000e+00 -5.000000e-01 0.000000e+00
0.000000e+00 0.000000e+00 0.000000e+00
0.000000e+00 5.000000e-01 0.000000e+00
0.000000e+00 1.000000e+00 0.000000e+00
5.000000e-01 -1.000000e+00 0.000000e+00
5.000000e-01 -5.000000e-01 0.000000e+00
5.000000e-01 0.000000e+00 0.000000e+00
5.000000e-01 5.000000e-01 0.000000e+00
5.000000e-01 1.000000e+00 0.000000e+00
1.500000e+00 -5.000000e-01 0.000000e+00
1.500000e+00 0.000000e+00 0.000000e+00
1.500000e+00 5.000000e-01 0.000000e+00

CELLS 11 55
4 0 5 6 1 
4 1 6 7 2 
4 2 7 8 3 
4 3 8 9 4 
4 5 10 11 6 
4 6 11 12 7 
4 7 12 13 8 
4 7 12 13 8 
4 8 13 14 9 
4 11 15 16 12 
4 12 16 17 13 

CELL_TYPES 11
9
9
9
9
9
9
9
9
9
9
9

POINT_DATA 18

SCALARS node_groups int 1
LOOKUP_TABLE default
0
0
0
0
0
0
0
0
0
0
0
0
0
0
0
0
0
0

CELL_DATA 11
SCALARS mat_id int 1
LOOKUP_TABLE default
0
0
0
0
0
0
0
1
0
0
0
