# vtk DataFile Version 2.0
step 0 time 0.000000e+00 normalized time 0.000000e+00, generated by test_simplify_3d.py
ASCII
DATASET UNSTRUCTURED_GRID

POINTS 109 float
-1.000000e+00 -1.000000e+00 -1.000000e+00
-1.000000e+00 -1.000000e+00 -3.333333e-01
-1.000000e+00 -1.000000e+00 3.333333e-01
-1.000000e+00 -1.000000e+00 1.000000e+00
-1.000000e+00 -3.333333e-01 -1.000000e+00
-1.000000e+00 -3.333333e-01 -3.333333e-01
-1.000000e+00 -3.333333e-01 3.333333e-01
-1.000000e+00 -3.333333e-01 1.000000e+00
-1.000000e+00 0.000000e+00 -1.000000e+00
-1.000000e+00 0.000000e+00 -3.333333e-01
-1.000000e+00 0.000000e+00 3.333333e-01
-1.000000e+00 0.000000e+00 1.000000e+00
-1.000000e+00 3.333333e-01 -1.000000e+00
-1.000000e+00 3.333333e-01 -3.333333e-01
-1.000000e+00 3.333333e-01 3.333333e-01
-1.000000e+00 3.333333e-01 1.000000e+00
-1.000000e+00 1.000000e+00 -1.000000e+00
-1.000000e+00 1.000000e+00 -3.333333e-01
-1.000000e+00 1.000000e+00 3.333333e-01
-1.000000e+00 1.000000e+00 1.000000e+00
-3.333333e-01 -1.000000e+00 -1.000000e+00
-3.333333e-01 -1.000000e+00 -3.333333e-01
-3.333333e-01 -1.000000e+00 3.333333e-01
-3.333333e-01 -1.000000e+00 1.000000e+00
-3.333333e-01 -3.333333e-01 -1.000000e+00
-3.333333e-01 -3.333333e-01 -3.333333e-01
-3.333333e-01 -3.333333e-01 3.333333e-01
-3.333333e-01 -3.333333e-01 1.000000e+00
-3.333333e-01 0.000000e+00 -1.000000e+00
-3.333333e-01 0.000000e+00 -3.333333e-01
-3.333333e-01 0.000000e+00 3.333333e-01
-3.333333e-01 0.000000e+00 1.000000e+00
-3.333333e-01 3.333333e-01 -1.000000e+00
-3.333333e-01 3.333333e-01 -3.333333e-01
-3.333333e-01 3.333333e-01 3.333333e-01
-3.333333e-01 3.333333e-01 1.000000e+00
-3.333333e-01 1.000000e+00 -1.000000e+00
-3.333333e-01 1.000000e+00 -3.333333e-01
-3.333333e-01 1.000000e+00 3.333333e-01
-3.333333e-01 1.000000e+00 1.000000e+00
0.000000e+00 -1.000000e+00 -1.000000e+00
0.000000e+00 -1.000000e+00 -3.333333e-01
0.000000e+00 -1.000000e+00 3.333333e-01
0.000000e+00 -1.000000e+00 1.000000e+00
0.000000e+00 -3.333333e-01 -1.000000e+00
0.000000e+00 -3.333333e-01 -3.333333e-01
0.000000e+00 -3.333333e-01 3.333333e-01
0.000000e+00 -3.333333e-01 1.000000e+00
0.000000e+00 0.000000e+00 -1.000000e+00
0.000000e+00 0.000000e+00 -3.333333e-01
0.000000e+00 0.000000e+00 3.333333e-01
0.000000e+00 0.000000e+00 1.000000e+00
0.000000e+00 0.000000e+00 2.000000e+00
0.000000e+00 3.333333e-01 -1.000000e+00
0.000000e+00 3.333333e-01 -3.333333e-01
0.000000e+00 3.333333e-01 3.333333e-01
0.000000e+00 3.333333e-01 1.000000e+00
0.000000e+00 3.333333e-01 2.000000e+00
0.000000e+00 1.000000e+00 -1.000000e+00
0.000000e+00 1.000000e+00 -3.333333e-01
0.000000e+00 1.000000e+00 3.333333e-01
0.000000e+00 1.000000e+00 1.000000e+00
0.000000e+00 1.000000e+00 2.000000e+00
3.333333e-01 -1.000000e+00 -1.000000e+00
3.333333e-01 -1.000000e+00 -3.333333e-01
3.333333e-01 -1.000000e+00 3.333333e-01
3.333333e-01 -1.000000e+00 1.000000e+00
3.333333e-01 -3.333333e-01 -1.000000e+00
3.333333e-01 -3.333333e-01 -3.333333e-01
3.333333e-01 -3.333333e-01 3.333333e-01
3.333333e-01 -3.333333e-01 1.000000e+00
3.333333e-01 0.000000e+00 -1.000000e+00
3.333333e-01 0.000000e+00 -3.333333e-01
3.333333e-01 0.000000e+00 3.333333e-01
3.333333e-01 0.000000e+00 1.000000e+00
3.333333e-01 0.000000e+00 2.000000e+00
3.333333e-01 3.333333e-01 -1.000000e+00
3.333333e-01 3.333333e-01 -3.333333e-01
3.333333e-01 3.333333e-01 3.333333e-01
3.333333e-01 3.333333e-01 1.000000e+00
3.333333e-01 3.333333e-01 2.000000e+00
3.333333e-01 1.000000e+00 -1.000000e+00
3.333333e-01 1.000000e+00 -3.333333e-01
3.333333e-01 1.000000e+00 3.333333e-01
3.333333e-01 1.000000e+00 1.000000e+00
3.333333e-01 1.000000e+00 2.000000e+00
1.000000e+00 -1.000000e+00 -1.000000e+00
1.000000e+00 -1.000000e+00 -3.333333e-01
1.000000e+00 -1.000000e+00 3.333333e-01
1.000000e+00 -1.000000e+00 1.000000e+00
1.000000e+00 -3.333333e-01 -1.000000e+00
1.000000e+00 -3.333333e-01 -3.333333e-01
1.000000e+00 -3.333333e-01 3.333333e-01
1.000000e+00 -3.333333e-01 1.000000e+00
1.000000e+00 0.000000e+00 -1.000000e+00
1.000000e+00 0.000000e+00 -3.333333e-01
1.000000e+00 0.000000e+00 3.333333e-01
1.000000e+00 0.000000e+00 1.000000e+00
1.000000e+00 0.000000e+00 2.000000e+00
1.000000e+00 3.333333e-01 -1.000000e+00
1.000000e+00 3.333333e-01 -3.333333e-01
1.000000e+00 3.333333e-01 3.333333e-01
1.000000e+00 3.333333e-01 1.000000e+00
1.000000e+00 3.333333e-01 2.000000e+00
1.000000e+00 1.000000e+00 -1.000000e+00
1.000000e+00 1.000000e+00 -3.333333e-01
1.000000e+00 1.000000e+00 3.333333e-01
1.000000e+00 1.000000e+00 1.000000e+00
1.000000e+00 1.000000e+00 2.000000e+00

CELLS 52 468
8 0 20 24 4 1 21 25 5 
8 1 21 25 5 2 22 26 6 
8 2 22 26 6 3 23 27 7 
8 4 24 28 8 5 25 29 9 
8 5 25 29 9 6 26 30 10 
8 6 26 30 10 7 27 31 11 
8 8 28 32 12 9 29 33 13 
8 9 29 33 13 10 30 34 14 
8 10 30 34 14 11 31 35 15 
8 12 32 36 16 13 33 37 17 
8 13 33 37 17 14 34 38 18 
8 14 34 38 18 15 35 39 19 
8 20 40 44 24 21 41 45 25 
8 21 41 45 25 22 42 46 26 
8 22 42 46 26 23 43 47 27 
8 24 44 48 28 25 45 49 29 
8 25 45 49 29 26 46 50 30 
8 26 46 50 30 27 47 51 31 
8 28 48 53 32 29 49 54 33 
8 29 49 54 33 30 50 55 34 
8 30 50 55 34 31 51 56 35 
8 32 53 58 36 33 54 59 37 
8 33 54 59 37 34 55 60 38 
8 34 55 60 38 35 56 61 39 
8 40 63 67 44 41 64 68 45 
8 41 64 68 45 42 65 69 46 
8 42 65 69 46 43 66 70 47 
8 44 67 71 48 45 68 72 49 
8 45 68 72 49 46 69 73 50 
8 46 69 73 50 47 70 74 51 
8 48 71 76 53 49 72 77 54 
8 49 72 77 54 50 73 78 55 
8 50 73 78 55 51 74 79 56 
8 51 74 79 56 52 75 80 57 
8 53 76 81 58 54 77 82 59 
8 54 77 82 59 55 78 83 60 
8 55 78 83 60 56 79 84 61 
8 56 79 84 61 57 80 85 62 
8 63 86 90 67 64 87 91 68 
8 64 87 91 68 65 88 92 69 
8 65 88 92 69 66 89 93 70 
8 67 90 94 71 68 91 95 72 
8 68 91 95 72 69 92 96 73 
8 69 92 96 73 70 93 97 74 
8 71 94 99 76 72 95 100 77 
8 72 95 100 77 73 96 101 78 
8 73 96 101 78 74 97 102 79 
8 74 97 102 79 75 98 103 80 
8 76 99 104 81 77 100 105 82 
8 77 100 105 82 78 101 106 83 
8 78 101 106 83 79 102 107 84 
8 79 102 107 84 80 103 108 85 

CELL_TYPES 52
12
12
12
12
12
12
12
12
12
12
12
12
12
12
12
12
12
12
12
12
12
12
12
12
12
12
12
12
12
12
12
12
12
12
12
12
12
12
12
12
12
12
12
12
12
12
12
12
12
12
12
12

POINT_DATA 109

SCALARS node_groups int 1
LOOKUP_TABLE default
0
0
0
0
0
0
0
0
0
0
0
0
0
0
0
0
0
0
0
0
0
0
0
0
0
0
0
0
0
0
0
0
0
0
0
0
0
0
0
0
0
0
0
0
0
0
0
0
0
0
0
0
0
0
0
0
0
0
0
0
0
0
0
0
0
0
0
0
0
0
0
0
0
0
0
0
0
0
0
0
0
0
0
0
0
0
0
0
0
0
0
0
0
0
0
0
0
0
0
0
0
0
0
0
0
0
0
0
0

CELL_DATA 52
SCALARS mat_id int 1
LOOKUP_TABLE default
0
0
0
0
0
0
0
0
0
0
0
0
0
0
0
0
0
0
0
0
0
0
0
0
0
0
0
0
0
0
0
0
0
1
0
0
0
1
0
0
0
0
0
0
0
0
0
1
0
0
0
1
