# vtk DataFile Version 2.0
step 0 time 0.000000e+00 normalized time 0.000000e+00, generated by test_simplify_3d.py
ASCII
DATASET UNSTRUCTURED_GRID

POINTS 22 float
-1.000000e+00 -1.000000e+00 -1.000000e+00
-1.000000e+00 -1.000000e+00 1.000000e+00
-1.000000e+00 0.000000e+00 -1.000000e+00
-1.000000e+00 0.000000e+00 1.000000e+00
-1.000000e+00 1.000000e+00 -1.000000e+00
-1.000000e+00 1.000000e+00 1.000000e+00
0.000000e+00 -1.000000e+00 -1.000000e+00
0.000000e+00 -1.000000e+00 1.000000e+00
0.000000e+00 0.000000e+00 -1.000000e+00
0.000000e+00 0.000000e+00 1.000000e+00
0.000000e+00 0.000000e+00 2.000000e+00
0.000000e+00 1.000000e+00 -1.000000e+00
0.000000e+00 1.000000e+00 1.000000e+00
0.000000e+00 1.000000e+00 2.000000e+00
1.000000e+00 -1.000000e+00 -1.000000e+00
1.000000e+00 -1.000000e+00 1.000000e+00
1.000000e+00 0.000000e+00 -1.000000e+00
1.000000e+00 0.000000e+00 1.000000e+00
1.000000e+00 0.000000e+00 2.000000e+00
1.000000e+00 1.000000e+00 -1.000000e+00
1.000000e+00 1.000000e+00 1.000000e+00
1.000000e+00 1.000000e+00 2.000000e+00

CELLS 5 45
8 0 6 8 2 1 7 9 3 
8 2 8 11 4 3 9 12 5 
8 6 14 16 8 7 15 17 9 
8 8 16 19 11 9 17 20 12 
8 9 17 20 12 10 18 21 13 

CELL_TYPES 5
12
12
12
12
12

POINT_DATA 22

SCALARS node_groups int 1
LOOKUP_TABLE default
0
0
0
0
0
0
0
0
0
0
0
0
0
0
0
0
0
0
0
0
0
0

CELL_DATA 5
SCALARS mat_id int 1
LOOKUP_TABLE default
0
0
0
0
1
