# vtk DataFile Version 2.0
step 0 time 0.000000e+00 normalized time 0.000000e+00, generated by test_stack_3d_ex2.py
ASCII
DATASET UNSTRUCTURED_GRID

POINTS 540 float
-1.750000e+00 -1.750000e+00 -5.000000e-02
-1.750000e+00 -1.750000e+00 0.000000e+00
-1.750000e+00 -1.750000e+00 5.000000e-02
-1.750000e+00 -1.750000e+00 1.050000e+00
-1.750000e+00 -1.750000e+00 1.100000e+00
-1.750000e+00 -1.750000e+00 1.150000e+00
-1.750000e+00 -1.500000e+00 -5.000000e-02
-1.750000e+00 -1.500000e+00 0.000000e+00
-1.750000e+00 -1.500000e+00 5.000000e-02
-1.750000e+00 -1.500000e+00 1.050000e+00
-1.750000e+00 -1.500000e+00 1.100000e+00
-1.750000e+00 -1.500000e+00 1.150000e+00
-1.750000e+00 -1.000000e+00 -5.000000e-02
-1.750000e+00 -1.000000e+00 0.000000e+00
-1.750000e+00 -1.000000e+00 5.000000e-02
-1.750000e+00 -1.000000e+00 1.050000e+00
-1.750000e+00 -1.000000e+00 1.100000e+00
-1.750000e+00 -1.000000e+00 1.150000e+00
-1.750000e+00 -5.000000e-01 -5.000000e-02
-1.750000e+00 -5.000000e-01 0.000000e+00
-1.750000e+00 -5.000000e-01 5.000000e-02
-1.750000e+00 -5.000000e-01 1.050000e+00
-1.750000e+00 -5.000000e-01 1.100000e+00
-1.750000e+00 -5.000000e-01 1.150000e+00
-1.750000e+00 0.000000e+00 -5.000000e-02
-1.750000e+00 0.000000e+00 0.000000e+00
-1.750000e+00 0.000000e+00 5.000000e-02
-1.750000e+00 0.000000e+00 1.050000e+00
-1.750000e+00 0.000000e+00 1.100000e+00
-1.750000e+00 0.000000e+00 1.150000e+00
-1.750000e+00 5.000000e-01 -5.000000e-02
-1.750000e+00 5.000000e-01 0.000000e+00
-1.750000e+00 5.000000e-01 5.000000e-02
-1.750000e+00 5.000000e-01 1.050000e+00
-1.750000e+00 5.000000e-01 1.100000e+00
-1.750000e+00 5.000000e-01 1.150000e+00
-1.750000e+00 1.000000e+00 -5.000000e-02
-1.750000e+00 1.000000e+00 0.000000e+00
-1.750000e+00 1.000000e+00 5.000000e-02
-1.750000e+00 1.000000e+00 1.050000e+00
-1.750000e+00 1.000000e+00 1.100000e+00
-1.750000e+00 1.000000e+00 1.150000e+00
-1.750000e+00 1.500000e+00 -5.000000e-02
-1.750000e+00 1.500000e+00 0.000000e+00
-1.750000e+00 1.500000e+00 5.000000e-02
-1.750000e+00 1.500000e+00 1.050000e+00
-1.750000e+00 1.500000e+00 1.100000e+00
-1.750000e+00 1.500000e+00 1.150000e+00
-1.750000e+00 1.750000e+00 -5.000000e-02
-1.750000e+00 1.750000e+00 0.000000e+00
-1.750000e+00 1.750000e+00 5.000000e-02
-1.750000e+00 1.750000e+00 1.050000e+00
-1.750000e+00 1.750000e+00 1.100000e+00
-1.750000e+00 1.750000e+00 1.150000e+00
-1.500000e+00 -1.750000e+00 -5.000000e-02
-1.500000e+00 -1.750000e+00 0.000000e+00
-1.500000e+00 -1.750000e+00 5.000000e-02
-1.500000e+00 -1.750000e+00 1.050000e+00
-1.500000e+00 -1.750000e+00 1.100000e+00
-1.500000e+00 -1.750000e+00 1.150000e+00
-1.500000e+00 -1.500000e+00 -5.000000e-02
-1.500000e+00 -1.500000e+00 0.000000e+00
-1.500000e+00 -1.500000e+00 5.000000e-02
-1.500000e+00 -1.500000e+00 5.500000e-01
-1.500000e+00 -1.500000e+00 1.050000e+00
-1.500000e+00 -1.500000e+00 1.050000e+00
-1.500000e+00 -1.500000e+00 1.100000e+00
-1.500000e+00 -1.500000e+00 1.150000e+00
-1.500000e+00 -1.000000e+00 -5.000000e-02
-1.500000e+00 -1.000000e+00 0.000000e+00
-1.500000e+00 -1.000000e+00 5.000000e-02
-1.500000e+00 -1.000000e+00 5.500000e-01
-1.500000e+00 -1.000000e+00 1.050000e+00
-1.500000e+00 -1.000000e+00 1.050000e+00
-1.500000e+00 -1.000000e+00 1.100000e+00
-1.500000e+00 -1.000000e+00 1.150000e+00
-1.500000e+00 -5.000000e-01 -5.000000e-02
-1.500000e+00 -5.000000e-01 0.000000e+00
-1.500000e+00 -5.000000e-01 5.000000e-02
-1.500000e+00 -5.000000e-01 5.500000e-01
-1.500000e+00 -5.000000e-01 1.050000e+00
-1.500000e+00 -5.000000e-01 1.050000e+00
-1.500000e+00 -5.000000e-01 1.100000e+00
-1.500000e+00 -5.000000e-01 1.150000e+00
-1.500000e+00 0.000000e+00 -5.000000e-02
-1.500000e+00 0.000000e+00 0.000000e+00
-1.500000e+00 0.000000e+00 5.000000e-02
-1.500000e+00 0.000000e+00 1.050000e+00
-1.500000e+00 0.000000e+00 1.100000e+00
-1.500000e+00 0.000000e+00 1.150000e+00
-1.500000e+00 5.000000e-01 -5.000000e-02
-1.500000e+00 5.000000e-01 0.000000e+00
-1.500000e+00 5.000000e-01 5.000000e-02
-1.500000e+00 5.000000e-01 5.500000e-01
-1.500000e+00 5.000000e-01 1.050000e+00
-1.500000e+00 5.000000e-01 1.100000e+00
-1.500000e+00 5.000000e-01 1.150000e+00
-1.500000e+00 1.000000e+00 -5.000000e-02
-1.500000e+00 1.000000e+00 0.000000e+00
-1.500000e+00 1.000000e+00 5.000000e-02
-1.500000e+00 1.000000e+00 5.500000e-01
-1.500000e+00 1.000000e+00 1.050000e+00
-1.500000e+00 1.000000e+00 1.100000e+00
-1.500000e+00 1.000000e+00 1.150000e+00
-1.500000e+00 1.500000e+00 -5.000000e-02
-1.500000e+00 1.500000e+00 0.000000e+00
-1.500000e+00 1.500000e+00 5.000000e-02
-1.500000e+00 1.500000e+00 5.500000e-01
-1.500000e+00 1.500000e+00 1.050000e+00
-1.500000e+00 1.500000e+00 1.100000e+00
-1.500000e+00 1.500000e+00 1.150000e+00
-1.500000e+00 1.750000e+00 -5.000000e-02
-1.500000e+00 1.750000e+00 0.000000e+00
-1.500000e+00 1.750000e+00 5.000000e-02
-1.500000e+00 1.750000e+00 1.050000e+00
-1.500000e+00 1.750000e+00 1.100000e+00
-1.500000e+00 1.750000e+00 1.150000e+00
-1.000000e+00 -1.750000e+00 -5.000000e-02
-1.000000e+00 -1.750000e+00 0.000000e+00
-1.000000e+00 -1.750000e+00 5.000000e-02
-1.000000e+00 -1.750000e+00 1.050000e+00
-1.000000e+00 -1.750000e+00 1.100000e+00
-1.000000e+00 -1.750000e+00 1.150000e+00
-1.000000e+00 -1.500000e+00 -5.000000e-02
-1.000000e+00 -1.500000e+00 0.000000e+00
-1.000000e+00 -1.500000e+00 5.000000e-02
-1.000000e+00 -1.500000e+00 5.500000e-01
-1.000000e+00 -1.500000e+00 1.050000e+00
-1.000000e+00 -1.500000e+00 1.050000e+00
-1.000000e+00 -1.500000e+00 1.100000e+00
-1.000000e+00 -1.500000e+00 1.150000e+00
-1.000000e+00 -1.000000e+00 -5.000000e-02
-1.000000e+00 -1.000000e+00 0.000000e+00
-1.000000e+00 -1.000000e+00 5.000000e-02
-1.000000e+00 -1.000000e+00 5.500000e-01
-1.000000e+00 -1.000000e+00 1.050000e+00
-1.000000e+00 -1.000000e+00 1.050000e+00
-1.000000e+00 -1.000000e+00 1.100000e+00
-1.000000e+00 -1.000000e+00 1.150000e+00
-1.000000e+00 -5.000000e-01 -5.000000e-02
-1.000000e+00 -5.000000e-01 0.000000e+00
-1.000000e+00 -5.000000e-01 5.000000e-02
-1.000000e+00 -5.000000e-01 5.500000e-01
-1.000000e+00 -5.000000e-01 1.050000e+00
-1.000000e+00 -5.000000e-01 1.050000e+00
-1.000000e+00 -5.000000e-01 1.100000e+00
-1.000000e+00 -5.000000e-01 1.150000e+00
-1.000000e+00 0.000000e+00 -5.000000e-02
-1.000000e+00 0.000000e+00 0.000000e+00
-1.000000e+00 0.000000e+00 5.000000e-02
-1.000000e+00 0.000000e+00 1.050000e+00
-1.000000e+00 0.000000e+00 1.100000e+00
-1.000000e+00 0.000000e+00 1.150000e+00
-1.000000e+00 5.000000e-01 -5.000000e-02
-1.000000e+00 5.000000e-01 0.000000e+00
-1.000000e+00 5.000000e-01 5.000000e-02
-1.000000e+00 5.000000e-01 5.500000e-01
-1.000000e+00 5.000000e-01 1.050000e+00
-1.000000e+00 5.000000e-01 1.100000e+00
-1.000000e+00 5.000000e-01 1.150000e+00
-1.000000e+00 1.000000e+00 -5.000000e-02
-1.000000e+00 1.000000e+00 0.000000e+00
-1.000000e+00 1.000000e+00 5.000000e-02
-1.000000e+00 1.000000e+00 5.500000e-01
-1.000000e+00 1.000000e+00 1.050000e+00
-1.000000e+00 1.000000e+00 1.100000e+00
-1.000000e+00 1.000000e+00 1.150000e+00
-1.000000e+00 1.500000e+00 -5.000000e-02
-1.000000e+00 1.500000e+00 0.000000e+00
-1.000000e+00 1.500000e+00 5.000000e-02
-1.000000e+00 1.500000e+00 5.500000e-01
-1.000000e+00 1.500000e+00 1.050000e+00
-1.000000e+00 1.500000e+00 1.100000e+00
-1.000000e+00 1.500000e+00 1.150000e+00
-1.000000e+00 1.750000e+00 -5.000000e-02
-1.000000e+00 1.750000e+00 0.000000e+00
-1.000000e+00 1.750000e+00 5.000000e-02
-1.000000e+00 1.750000e+00 1.050000e+00
-1.000000e+00 1.750000e+00 1.100000e+00
-1.000000e+00 1.750000e+00 1.150000e+00
-5.000000e-01 -1.750000e+00 -5.000000e-02
-5.000000e-01 -1.750000e+00 0.000000e+00
-5.000000e-01 -1.750000e+00 5.000000e-02
-5.000000e-01 -1.750000e+00 1.050000e+00
-5.000000e-01 -1.750000e+00 1.100000e+00
-5.000000e-01 -1.750000e+00 1.150000e+00
-5.000000e-01 -1.500000e+00 -5.000000e-02
-5.000000e-01 -1.500000e+00 0.000000e+00
-5.000000e-01 -1.500000e+00 5.000000e-02
-5.000000e-01 -1.500000e+00 5.500000e-01
-5.000000e-01 -1.500000e+00 1.050000e+00
-5.000000e-01 -1.500000e+00 1.050000e+00
-5.000000e-01 -1.500000e+00 1.100000e+00
-5.000000e-01 -1.500000e+00 1.150000e+00
-5.000000e-01 -1.000000e+00 -5.000000e-02
-5.000000e-01 -1.000000e+00 0.000000e+00
-5.000000e-01 -1.000000e+00 5.000000e-02
-5.000000e-01 -1.000000e+00 5.500000e-01
-5.000000e-01 -1.000000e+00 1.050000e+00
-5.000000e-01 -1.000000e+00 1.050000e+00
-5.000000e-01 -1.000000e+00 1.100000e+00
-5.000000e-01 -1.000000e+00 1.150000e+00
-5.000000e-01 -5.000000e-01 -5.000000e-02
-5.000000e-01 -5.000000e-01 0.000000e+00
-5.000000e-01 -5.000000e-01 5.000000e-02
-5.000000e-01 -5.000000e-01 5.500000e-01
-5.000000e-01 -5.000000e-01 1.050000e+00
-5.000000e-01 -5.000000e-01 1.050000e+00
-5.000000e-01 -5.000000e-01 1.100000e+00
-5.000000e-01 -5.000000e-01 1.150000e+00
-5.000000e-01 0.000000e+00 -5.000000e-02
-5.000000e-01 0.000000e+00 0.000000e+00
-5.000000e-01 0.000000e+00 5.000000e-02
-5.000000e-01 0.000000e+00 1.050000e+00
-5.000000e-01 0.000000e+00 1.100000e+00
-5.000000e-01 0.000000e+00 1.150000e+00
-5.000000e-01 5.000000e-01 -5.000000e-02
-5.000000e-01 5.000000e-01 0.000000e+00
-5.000000e-01 5.000000e-01 5.000000e-02
-5.000000e-01 5.000000e-01 5.500000e-01
-5.000000e-01 5.000000e-01 1.050000e+00
-5.000000e-01 5.000000e-01 1.100000e+00
-5.000000e-01 5.000000e-01 1.150000e+00
-5.000000e-01 1.000000e+00 -5.000000e-02
-5.000000e-01 1.000000e+00 0.000000e+00
-5.000000e-01 1.000000e+00 5.000000e-02
-5.000000e-01 1.000000e+00 5.500000e-01
-5.000000e-01 1.000000e+00 1.050000e+00
-5.000000e-01 1.000000e+00 1.100000e+00
-5.000000e-01 1.000000e+00 1.150000e+00
-5.000000e-01 1.500000e+00 -5.000000e-02
-5.000000e-01 1.500000e+00 0.000000e+00
-5.000000e-01 1.500000e+00 5.000000e-02
-5.000000e-01 1.500000e+00 5.500000e-01
-5.000000e-01 1.500000e+00 1.050000e+00
-5.000000e-01 1.500000e+00 1.100000e+00
[...]
POINT_DATA 540

SCALARS node_groups int 1
LOOKUP_TABLE default
0
0
0
0
0
0
0
0
0
0
0
0
0
0
0
0
0
0
0
0
0
0
0
0
0
0
0
0
0
0
0
0
0
0
0
0
0
0
0
0
0
0
0
0
0
0
0
0
0
0
0
0
0
0
0
0
0
0
0
0
0
0
0
0
0
0
0
0
0
0
0
0
0
0
0
0
0
0
0
0
0
0
0
0
0
0
0
0
0
0
0
0
0
0
0
0
0
0
0
0
0
0
0
0
0
0
0
0
0
0
0
0
0
0
0
0
0
0
0
0
0
0
0
0
0
0
0
0
0
0
0
0
0
0
0
0
0
0
0
0
0
0
0
0
0
0
0
0
0
0
0
0
0
0
0
0
0
0
0
0
0
0
0
0
0
0
0
0
0
0
0
0
0
0
0
0
0
0
0
0
0
0
0
0
0
0
0
0
0
0
0
0
0
0
0
0
0
0
0
0
0
0
0
0
0
0
0
0
0
0
0
0
0
0
0
0
0
0
0
0
0
0
0
0
0
0
0
0
0
0
0
0
0
0
0
0
0
0
0
0
0
0
0
0
0
0
0
0
0
0
0
0
0
0
0
0
0
0
0
0
0
0
0
0
0
0
0
0
0
0
0
0
0
0
0
0
0
0
0
0
0
0
0
0
0
0
0
0
0
0
0
0
0
0
0
0
0
0
0
0
0
0
0
0
0
0
0
0
0
0
0
0
0
0
0
0
0
0
0
0
0
0
0
0
0
0
0
0
0
0
0
0
0
0
0
0
0
0
0
0
0
0
0
0
0
0
0
0
0
0
0
0
0
0
0
0
0
0
0
0
0
0
0
0
0
0
0
0
0
0
0
0
0
0
0
0
0
0
0
0
0
0
0
0
0
0
0
0
0
0
0
0
0
0
0
0
0
0
0
0
0
0
0
0
0
0
0
0
0
0
0
0
0
0
0
0
0
0
0
0
0
0
0
0
0
0
0
0
0
0
0
0
0
0
0
0
0
0
0
0
0
0
0
0
0
0
0
0
0
0
0
0
0
0
0
0
0
0
0
0
0
0
0
0
0
0
0
0
0
0
0
0
0
0
0
0
0
0
0
0
0
0
0
0
0
0
0
0
0
0
0
0
0
0
0
0
0
0
0
0
0
0
0
0
0
0
0
0
0
0
0
0
0
0
0
0
0
0
0
0
0
0
0
0
0
0
0
0
0
0
0
0
0
0
0
0
0
0
0
0

CELL_DATA 288
SCALARS mat_id int 1
LOOKUP_TABLE default
0
0
1
1
0
0
1
1
0
0
1
1
0
0
1
1
0
0
1
1
0
0
1
1
0
0
1
1
0
0
1
1
0
0
1
1
0
0
0
0
1
1
0
0
0
0
1
1
0
0
1
1
0
0
1
1
0
0
1
1
1
1
0
0
1
1
1
1
0
0
1
1
0
0
1
1
0
0
0
0
1
1
0
0
0
0
1
1
0
0
1
1
0
0
1
1
0
0
1
1
1
1
0
0
1
1
1
1
0
0
1
1
0
0
1
1
0
0
1
1
0
0
1
1
0
0
1
1
0
0
1
1
0
0
1
1
0
0
1
1
0
0
1
1
0
0
1
1
0
0
1
1
0
0
1
1
0
0
1
1
0
0
1
1
0
0
1
1
0
0
1
1
0
0
1
1
0
0
1
1
0
0
1
1
1
1
0
0
1
1
1
1
0
0
1
1
0
0
1
1
0
0
0
0
1
1
0
0
0
0
1
1
0
0
1
1
0
0
1
1
0
0
1
1
1
1
0
0
1
1
1
1
0
0
1
1
0
0
1
1
0
0
0
0
1
1
0
0
0
0
1
1
0
0
1
1
0
0
1
1
0
0
1
1
0
0
1
1
0
0
1
1
0
0
1
1
0
0
1
1
0
0
1
1
0
0
1
1
