# vtk DataFile Version 2.0
step 0 time 0.000000e+00 normalized time 0.000000e+00, generated by test_stack_3d.py
ASCII
DATASET UNSTRUCTURED_GRID

POINTS 351 float
-2.000000e+00 -2.000000e+00 -1.000000e+00
-2.000000e+00 -2.000000e+00 0.000000e+00
-2.000000e+00 -2.000000e+00 1.000000e+00
-2.000000e+00 -1.500000e+00 -1.000000e+00
-2.000000e+00 -1.500000e+00 0.000000e+00
-2.000000e+00 -1.500000e+00 1.000000e+00
-2.000000e+00 -1.000000e+00 -1.000000e+00
-2.000000e+00 -1.000000e+00 0.000000e+00
-2.000000e+00 -1.000000e+00 1.000000e+00
-2.000000e+00 -5.000000e-01 -1.000000e+00
-2.000000e+00 -5.000000e-01 0.000000e+00
-2.000000e+00 -5.000000e-01 1.000000e+00
-2.000000e+00 0.000000e+00 -1.000000e+00
-2.000000e+00 0.000000e+00 0.000000e+00
-2.000000e+00 0.000000e+00 1.000000e+00
-2.000000e+00 5.000000e-01 -1.000000e+00
-2.000000e+00 5.000000e-01 0.000000e+00
-2.000000e+00 5.000000e-01 1.000000e+00
-2.000000e+00 1.000000e+00 -1.000000e+00
-2.000000e+00 1.000000e+00 0.000000e+00
-2.000000e+00 1.000000e+00 1.000000e+00
-2.000000e+00 1.500000e+00 -1.000000e+00
-2.000000e+00 1.500000e+00 0.000000e+00
-2.000000e+00 1.500000e+00 1.000000e+00
-2.000000e+00 2.000000e+00 -1.000000e+00
-2.000000e+00 2.000000e+00 0.000000e+00
-2.000000e+00 2.000000e+00 1.000000e+00
-1.500000e+00 -2.000000e+00 -1.000000e+00
-1.500000e+00 -2.000000e+00 0.000000e+00
-1.500000e+00 -2.000000e+00 1.000000e+00
-1.500000e+00 -1.500000e+00 -1.000000e+00
-1.500000e+00 -1.500000e+00 0.000000e+00
-1.500000e+00 -1.500000e+00 1.000000e+00
-1.500000e+00 -1.500000e+00 1.500000e+00
-1.500000e+00 -1.500000e+00 2.000000e+00
-1.500000e+00 -1.000000e+00 -1.000000e+00
-1.500000e+00 -1.000000e+00 0.000000e+00
-1.500000e+00 -1.000000e+00 1.000000e+00
-1.500000e+00 -1.000000e+00 1.500000e+00
-1.500000e+00 -1.000000e+00 2.000000e+00
-1.500000e+00 -5.000000e-01 -1.000000e+00
-1.500000e+00 -5.000000e-01 0.000000e+00
-1.500000e+00 -5.000000e-01 1.000000e+00
-1.500000e+00 -5.000000e-01 1.500000e+00
-1.500000e+00 -5.000000e-01 2.000000e+00
-1.500000e+00 0.000000e+00 -1.000000e+00
-1.500000e+00 0.000000e+00 0.000000e+00
-1.500000e+00 0.000000e+00 1.000000e+00
-1.500000e+00 5.000000e-01 -1.000000e+00
-1.500000e+00 5.000000e-01 0.000000e+00
-1.500000e+00 5.000000e-01 1.000000e+00
-1.500000e+00 5.000000e-01 1.500000e+00
-1.500000e+00 5.000000e-01 2.000000e+00
-1.500000e+00 5.000000e-01 2.500000e+00
-1.500000e+00 5.000000e-01 3.000000e+00
-1.500000e+00 1.000000e+00 -1.000000e+00
-1.500000e+00 1.000000e+00 0.000000e+00
-1.500000e+00 1.000000e+00 1.000000e+00
-1.500000e+00 1.000000e+00 1.500000e+00
-1.500000e+00 1.000000e+00 2.000000e+00
-1.500000e+00 1.000000e+00 2.500000e+00
-1.500000e+00 1.000000e+00 3.000000e+00
-1.500000e+00 1.500000e+00 -1.000000e+00
-1.500000e+00 1.500000e+00 0.000000e+00
-1.500000e+00 1.500000e+00 1.000000e+00
-1.500000e+00 1.500000e+00 1.500000e+00
-1.500000e+00 1.500000e+00 2.000000e+00
-1.500000e+00 1.500000e+00 2.500000e+00
-1.500000e+00 1.500000e+00 3.000000e+00
-1.500000e+00 2.000000e+00 -1.000000e+00
-1.500000e+00 2.000000e+00 0.000000e+00
-1.500000e+00 2.000000e+00 1.000000e+00
-1.000000e+00 -2.000000e+00 -1.000000e+00
-1.000000e+00 -2.000000e+00 0.000000e+00
-1.000000e+00 -2.000000e+00 1.000000e+00
-1.000000e+00 -1.500000e+00 -1.000000e+00
-1.000000e+00 -1.500000e+00 0.000000e+00
-1.000000e+00 -1.500000e+00 1.000000e+00
-1.000000e+00 -1.500000e+00 1.500000e+00
-1.000000e+00 -1.500000e+00 2.000000e+00
-1.000000e+00 -1.000000e+00 -1.000000e+00
-1.000000e+00 -1.000000e+00 0.000000e+00
-1.000000e+00 -1.000000e+00 1.000000e+00
-1.000000e+00 -1.000000e+00 1.500000e+00
-1.000000e+00 -1.000000e+00 2.000000e+00
-1.000000e+00 -5.000000e-01 -1.000000e+00
-1.000000e+00 -5.000000e-01 0.000000e+00
-1.000000e+00 -5.000000e-01 1.000000e+00
-1.000000e+00 -5.000000e-01 1.500000e+00
-1.000000e+00 -5.000000e-01 2.000000e+00
-1.000000e+00 0.000000e+00 -1.000000e+00
-1.000000e+00 0.000000e+00 0.000000e+00
-1.000000e+00 0.000000e+00 1.000000e+00
-1.000000e+00 5.000000e-01 -1.000000e+00
-1.000000e+00 5.000000e-01 0.000000e+00
-1.000000e+00 5.000000e-01 1.000000e+00
-1.000000e+00 5.000000e-01 1.500000e+00
-1.000000e+00 5.000000e-01 2.000000e+00
-1.000000e+00 5.000000e-01 2.500000e+00
-1.000000e+00 5.000000e-01 3.000000e+00
-1.000000e+00 1.000000e+00 -1.000000e+00
-1.000000e+00 1.000000e+00 0.000000e+00
-1.000000e+00 1.000000e+00 1.000000e+00
-1.000000e+00 1.000000e+00 1.500000e+00
-1.000000e+00 1.000000e+00 2.000000e+00
-1.000000e+00 1.000000e+00 2.500000e+00
-1.000000e+00 1.000000e+00 3.000000e+00
-1.000000e+00 1.500000e+00 -1.000000e+00
-1.000000e+00 1.500000e+00 0.000000e+00
-1.000000e+00 1.500000e+00 1.000000e+00
-1.000000e+00 1.500000e+00 1.500000e+00
-1.000000e+00 1.500000e+00 2.000000e+00
-1.000000e+00 1.500000e+00 2.500000e+00
-1.000000e+00 1.500000e+00 3.000000e+00
-1.000000e+00 2.000000e+00 -1.000000e+00
-1.000000e+00 2.000000e+00 0.000000e+00
-1.000000e+00 2.000000e+00 1.000000e+00
-5.000000e-01 -2.000000e+00 -1.000000e+00
-5.000000e-01 -2.000000e+00 0.000000e+00
-5.000000e-01 -2.000000e+00 1.000000e+00
-5.000000e-01 -1.500000e+00 -1.000000e+00
-5.000000e-01 -1.500000e+00 0.000000e+00
-5.000000e-01 -1.500000e+00 1.000000e+00
-5.000000e-01 -1.500000e+00 1.500000e+00
-5.000000e-01 -1.500000e+00 2.000000e+00
-5.000000e-01 -1.000000e+00 -1.000000e+00
-5.000000e-01 -1.000000e+00 0.000000e+00
-5.000000e-01 -1.000000e+00 1.000000e+00
-5.000000e-01 -1.000000e+00 1.500000e+00
-5.000000e-01 -1.000000e+00 2.000000e+00
-5.000000e-01 -5.000000e-01 -1.000000e+00
-5.000000e-01 -5.000000e-01 0.000000e+00
-5.000000e-01 -5.000000e-01 1.000000e+00
-5.000000e-01 -5.000000e-01 1.500000e+00
-5.000000e-01 -5.000000e-01 2.000000e+00
-5.000000e-01 0.000000e+00 -1.000000e+00
-5.000000e-01 0.000000e+00 0.000000e+00
-5.000000e-01 0.000000e+00 1.000000e+00
-5.000000e-01 5.000000e-01 -1.000000e+00
-5.000000e-01 5.000000e-01 0.000000e+00
-5.000000e-01 5.000000e-01 1.000000e+00
-5.000000e-01 5.000000e-01 1.500000e+00
-5.000000e-01 5.000000e-01 2.000000e+00
-5.000000e-01 5.000000e-01 2.500000e+00
-5.000000e-01 5.000000e-01 3.000000e+00
-5.000000e-01 1.000000e+00 -1.000000e+00
-5.000000e-01 1.000000e+00 0.000000e+00
-5.000000e-01 1.000000e+00 1.000000e+00
-5.000000e-01 1.000000e+00 1.500000e+00
-5.000000e-01 1.000000e+00 2.000000e+00
-5.000000e-01 1.000000e+00 2.500000e+00
-5.000000e-01 1.000000e+00 3.000000e+00
-5.000000e-01 1.500000e+00 -1.000000e+00
-5.000000e-01 1.500000e+00 0.000000e+00
-5.000000e-01 1.500000e+00 1.000000e+00
-5.000000e-01 1.500000e+00 1.500000e+00
-5.000000e-01 1.500000e+00 2.000000e+00
-5.000000e-01 1.500000e+00 2.500000e+00
-5.000000e-01 1.500000e+00 3.000000e+00
-5.000000e-01 2.000000e+00 -1.000000e+00
-5.000000e-01 2.000000e+00 0.000000e+00
-5.000000e-01 2.000000e+00 1.000000e+00
0.000000e+00 -2.000000e+00 -1.000000e+00
0.000000e+00 -2.000000e+00 0.000000e+00
0.000000e+00 -2.000000e+00 1.000000e+00
0.000000e+00 -1.500000e+00 -1.000000e+00
0.000000e+00 -1.500000e+00 0.000000e+00
0.000000e+00 -1.500000e+00 1.000000e+00
0.000000e+00 -1.000000e+00 -1.000000e+00
0.000000e+00 -1.000000e+00 0.000000e+00
0.000000e+00 -1.000000e+00 1.000000e+00
0.000000e+00 -5.000000e-01 -1.000000e+00
0.000000e+00 -5.000000e-01 0.000000e+00
0.000000e+00 -5.000000e-01 1.000000e+00
0.000000e+00 0.000000e+00 -1.000000e+00
0.000000e+00 0.000000e+00 0.000000e+00
0.000000e+00 0.000000e+00 1.000000e+00
0.000000e+00 5.000000e-01 -1.000000e+00
0.000000e+00 5.000000e-01 0.000000e+00
0.000000e+00 5.000000e-01 1.000000e+00
0.000000e+00 1.000000e+00 -1.000000e+00
0.000000e+00 1.000000e+00 0.000000e+00
0.000000e+00 1.000000e+00 1.000000e+00
0.000000e+00 1.500000e+00 -1.000000e+00
0.000000e+00 1.500000e+00 0.000000e+00
0.000000e+00 1.500000e+00 1.000000e+00
0.000000e+00 2.000000e+00 -1.000000e+00
0.000000e+00 2.000000e+00 0.000000e+00
0.000000e+00 2.000000e+00 1.000000e+00
5.000000e-01 -2.000000e+00 -1.000000e+00
5.000000e-01 -2.000000e+00 0.000000e+00
5.000000e-01 -2.000000e+00 1.000000e+00
5.000000e-01 -1.500000e+00 -1.000000e+00
5.000000e-01 -1.500000e+00 0.000000e+00
5.000000e-01 -1.500000e+00 1.000000e+00
5.000000e-01 -1.500000e+00 1.500000e+00
5.000000e-01 -1.500000e+00 2.000000e+00
5.000000e-01 -1.500000e+00 2.500000e+00
5.000000e-01 -1.500000e+00 3.000000e+00
5.000000e-01 -1.000000e+00 -1.000000e+00
5.000000e-01 -1.000000e+00 0.000000e+00
5.000000e-01 -1.000000e+00 1.000000e+00
5.000000e-01 -1.000000e+00 1.500000e+00
5.000000e-01 -1.000000e+00 2.000000e+00
5.000000e-01 -1.000000e+00 2.500000e+00
5.000000e-01 -1.000000e+00 3.000000e+00
5.000000e-01 -5.000000e-01 -1.000000e+00
5.000000e-01 -5.000000e-01 0.000000e+00
5.000000e-01 -5.000000e-01 1.000000e+00
5.000000e-01 -5.000000e-01 1.500000e+00
5.000000e-01 -5.000000e-01 2.000000e+00
5.000000e-01 -5.000000e-01 2.500000e+00
5.000000e-01 -5.000000e-01 3.000000e+00
5.000000e-01 0.000000e+00 -1.000000e+00
5.000000e-01 0.000000e+00 0.000000e+00
5.000000e-01 0.000000e+00 1.000000e+00
5.000000e-01 5.000000e-01 -1.000000e+00
5.000000e-01 5.000000e-01 0.000000e+00
5.000000e-01 5.000000e-01 1.000000e+00
5.000000e-01 5.000000e-01 1.500000e+00
5.000000e-01 5.000000e-01 2.000000e+00
5.000000e-01 1.000000e+00 -1.000000e+00
5.000000e-01 1.000000e+00 0.000000e+00
5.000000e-01 1.000000e+00 1.000000e+00
5.000000e-01 1.000000e+00 1.500000e+00
5.000000e-01 1.000000e+00 2.000000e+00
5.000000e-01 1.500000e+00 -1.000000e+00
5.000000e-01 1.500000e+00 0.000000e+00
5.000000e-01 1.500000e+00 1.000000e+00
5.000000e-01 1.500000e+00 1.500000e+00
5.000000e-01 1.500000e+00 2.000000e+00
5.000000e-01 2.000000e+00 -1.000000e+00
5.000000e-01 2.000000e+00 0.000000e+00
5.000000e-01 2.000000e+00 1.000000e+00
1.000000e+00 -2.000000e+00 -1.000000e+00
1.000000e+00 -2.000000e+00 0.000000e+00
1.000000e+00 -2.000000e+00 1.000000e+00
1.000000e+00 -1.500000e+00 -1.000000e+00
1.000000e+00 -1.500000e+00 0.000000e+00
1.000000e+00 -1.500000e+00 1.000000e+00
1.000000e+00 -1.500000e+00 1.500000e+00
1.000000e+00 -1.500000e+00 2.000000e+00
1.000000e+00 -1.500000e+00 2.500000e+00
1.000000e+00 -1.500000e+00 3.000000e+00
1.000000e+00 -1.000000e+00 -1.000000e+00
1.000000e+00 -1.000000e+00 0.000000e+00
1.000000e+00 -1.000000e+00 1.000000e+00
1.000000e+00 -1.000000e+00 1.500000e+00
1.000000e+00 -1.000000e+00 2.000000e+00
1.000000e+00 -1.000000e+00 2.500000e+00
1.000000e+00 -1.000000e+00 3.000000e+00
1.000000e+00 -5.000000e-01 -1.000000e+00
1.000000e+00 -5.000000e-01 0.000000e+00
1.000000e+00 -5.000000e-01 1.000000e+00
1.000000e+00 -5.000000e-01 1.500000e+00
1.000000e+00 -5.000000e-01 2.000000e+00
1.000000e+00 -5.000000e-01 2.500000e+00
1.000000e+00 -5.000000e-01 3.000000e+00
1.000000e+00 0.000000e+00 -1.000000e+00
1.000000e+00 0.000000e+00 0.000000e+00
1.000000e+00 0.000000e+00 1.000000e+00
1.000000e+00 5.000000e-01 -1.000000e+00
1.000000e+00 5.000000e-01 0.000000e+00
1.000000e+00 5.000000e-01 1.000000e+00
1.000000e+00 5.000000e-01 1.500000e+00
1.000000e+00 5.000000e-01 2.000000e+00
1.000000e+00 1.000000e+00 -1.000000e+00
1.000000e+00 1.000000e+00 0.000000e+00
1.000000e+00 1.000000e+00 1.000000e+00
1.000000e+00 1.000000e+00 1.500000e+00
1.000000e+00 1.000000e+00 2.000000e+00
1.000000e+00 1.500000e+00 -1.000000e+00
1.000000e+00 1.500000e+00 0.000000e+00
1.000000e+00 1.500000e+00 1.000000e+00
1.000000e+00 1.500000e+00 1.500000e+00
1.000000e+00 1.500000e+00 2.000000e+00
1.000000e+00 2.000000e+00 -1.000000e+00
1.000000e+00 2.000000e+00 0.000000e+00
1.000000e+00 2.000000e+00 1.000000e+00
1.500000e+00 -2.000000e+00 -1.000000e+00
1.500000e+00 -2.000000e+00 0.000000e+00
1.500000e+00 -2.000000e+00 1.000000e+00
1.500000e+00 -1.500000e+00 -1.000000e+00
1.500000e+00 -1.500000e+00 0.000000e+00
1.500000e+00 -1.500000e+00 1.000000e+00
1.500000e+00 -1.500000e+00 1.500000e+00
1.500000e+00 -1.500000e+00 2.000000e+00
1.500000e+00 -1.500000e+00 2.500000e+00
1.500000e+00 -1.500000e+00 3.000000e+00
1.500000e+00 -1.000000e+00 -1.000000e+00
1.500000e+00 -1.000000e+00 0.000000e+00
1.500000e+00 -1.000000e+00 1.000000e+00
1.500000e+00 -1.000000e+00 1.500000e+00
1.500000e+00 -1.000000e+00 2.000000e+00
1.500000e+00 -1.000000e+00 2.500000e+00
1.500000e+00 -1.000000e+00 3.000000e+00
1.500000e+00 -5.000000e-01 -1.000000e+00
1.500000e+00 -5.000000e-01 0.000000e+00
1.500000e+00 -5.000000e-01 1.000000e+00
1.500000e+00 -5.000000e-01 1.500000e+00
1.500000e+00 -5.000000e-01 2.000000e+00
1.500000e+00 -5.000000e-01 2.500000e+00
1.500000e+00 -5.000000e-01 3.000000e+00
1.500000e+00 0.000000e+00 -1.000000e+00
1.500000e+00 0.000000e+00 0.000000e+00
1.500000e+00 0.000000e+00 1.000000e+00
1.500000e+00 5.000000e-01 -1.000000e+00
1.500000e+00 5.000000e-01 0.000000e+00
1.500000e+00 5.000000e-01 1.000000e+00
1.500000e+00 5.000000e-01 1.500000e+00
1.500000e+00 5.000000e-01 2.000000e+00
1.500000e+00 1.000000e+00 -1.000000e+00
1.500000e+00 1.000000e+00 0.000000e+00
1.500000e+00 1.000000e+00 1.000000e+00
1.500000e+00 1.000000e+00 1.500000e+00
1.500000e+00 1.000000e+00 2.000000e+00
1.500000e+00 1.500000e+00 -1.000000e+00
1.500000e+00 1.500000e+00 0.000000e+00
1.500000e+00 1.500000e+00 1.000000e+00
1.500000e+00 1.500000e+00 1.500000e+00
1.500000e+00 1.500000e+00 2.000000e+00
1.500000e+00 2.000000e+00 -1.000000e+00
1.500000e+00 2.000000e+00 0.000000e+00
1.500000e+00 2.000000e+00 1.000000e+00
2.000000e+00 -2.000000e+00 -1.000000e+00
2.000000e+00 -2.000000e+00 0.000000e+00
2.000000e+00 -2.000000e+00 1.000000e+00
2.000000e+00 -1.500000e+00 -1.000000e+00
2.000000e+00 -1.500000e+00 0.000000e+00
2.000000e+00 -1.500000e+00 1.000000e+00
2.000000e+00 -1.000000e+00 -1.000000e+00
2.000000e+00 -1.000000e+00 0.000000e+00
2.000000e+00 -1.000000e+00 1.000000e+00
2.000000e+00 -5.000000e-01 -1.000000e+00
2.000000e+00 -5.000000e-01 0.000000e+00
2.000000e+00 -5.000000e-01 1.000000e+00
2.000000e+00 0.000000e+00 -1.000000e+00
2.000000e+00 0.000000e+00 0.000000e+00
2.000000e+00 0.000000e+00 1.000000e+00
2.000000e+00 5.000000e-01 -1.000000e+00
2.000000e+00 5.000000e-01 0.000000e+00
2.000000e+00 5.000000e-01 1.000000e+00
2.000000e+00 1.000000e+00 -1.000000e+00
2.000000e+00 1.000000e+00 0.000000e+00
2.000000e+00 1.000000e+00 1.000000e+00
2.000000e+00 1.500000e+00 -1.000000e+00
2.000000e+00 1.500000e+00 0.000000e+00
2.000000e+00 1.500000e+00 1.000000e+00
2.000000e+00 2.000000e+00 -1.000000e+00
2.000000e+00 2.000000e+00 0.000000e+00
2.000000e+00 2.000000e+00 1.000000e+00

CELLS 176 1584
8 0 27 30 3 1 28 31 4 
8 1 28 31 4 2 29 32 5 
8 3 30 35 6 4 31 36 7 
8 4 31 36 7 5 32 37 8 
8 6 35 40 9 7 36 41 10 
8 7 36 41 10 8 37 42 11 
8 9 40 45 12 10 41 46 13 
8 10 41 46 13 11 42 47 14 
8 12 45 48 15 13 46 49 16 
8 13 46 49 16 14 47 50 17 
8 15 48 55 18 16 49 56 19 
8 16 49 56 19 17 50 57 20 
8 18 55 62 21 19 56 63 22 
8 19 56 63 22 20 57 64 23 
8 21 62 69 24 22 63 70 25 
8 22 63 70 25 23 64 71 26 
8 27 72 75 30 28 73 76 31 
8 28 73 76 31 29 74 77 32 
8 30 75 80 35 31 76 81 36 
8 31 76 81 36 32 77 82 37 
8 32 77 82 37 33 78 83 38 
8 33 78 83 38 34 79 84 39 
8 35 80 85 40 36 81 86 41 
8 36 81 86 41 37 82 87 42 
8 37 82 87 42 38 83 88 43 
8 38 83 88 43 39 84 89 44 
8 40 85 90 45 41 86 91 46 
8 41 86 91 46 42 87 92 47 
8 45 90 93 48 46 91 94 49 
8 46 91 94 49 47 92 95 50 
8 48 93 100 55 49 94 101 56 
8 49 94 101 56 50 95 102 57 
8 50 95 102 57 51 96 103 58 
8 51 96 103 58 52 97 104 59 
8 52 97 104 59 53 98 105 60 
8 53 98 105 60 54 99 106 61 
8 55 100 107 62 56 101 108 63 
8 56 101 108 63 57 102 109 64 
8 57 102 109 64 58 103 110 65 
8 58 103 110 65 59 104 111 66 
8 59 104 111 66 60 105 112 67 
8 60 105 112 67 61 106 113 68 
8 62 107 114 69 63 108 115 70 
8 63 108 115 70 64 109 116 71 
8 72 117 120 75 73 118 121 76 
8 73 118 121 76 74 119 122 77 
8 75 120 125 80 76 121 126 81 
8 76 121 126 81 77 122 127 82 
8 77 122 127 82 78 123 128 83 
8 78 123 128 83 79 124 129 84 
8 80 125 130 85 81 126 131 86 
8 81 126 131 86 82 127 132 87 
8 82 127 132 87 83 128 133 88 
8 83 128 133 88 84 129 134 89 
8 85 130 135 90 86 131 136 91 
8 86 131 136 91 87 132 137 92 
8 90 135 138 93 91 136 139 94 
8 91 136 139 94 92 137 140 95 
8 93 138 145 100 94 139 146 101 
8 94 139 146 101 95 140 147 102 
8 95 140 147 102 96 141 148 103 
8 96 141 148 103 97 142 149 104 
8 97 142 149 104 98 143 150 105 
8 98 143 150 105 99 144 151 106 
8 100 145 152 107 101 146 153 108 
8 101 146 153 108 102 147 154 109 
8 102 147 154 109 103 148 155 110 
8 103 148 155 110 104 149 156 111 
8 104 149 156 111 105 150 157 112 
8 105 150 157 112 106 151 158 113 
8 107 152 159 114 108 153 160 115 
8 108 153 160 115 109 154 161 116 
8 117 162 165 120 118 163 166 121 
8 118 163 166 121 119 164 167 122 
8 120 165 168 125 121 166 169 126 
8 121 166 169 126 122 167 170 127 
8 125 168 171 130 126 169 172 131 
8 126 169 172 131 127 170 173 132 
8 130 171 174 135 131 172 175 136 
8 131 172 175 136 132 173 176 137 
8 135 174 177 138 136 175 178 139 
8 136 175 178 139 137 176 179 140 
8 138 177 180 145 139 178 181 146 
8 139 178 181 146 140 179 182 147 
8 145 180 183 152 146 181 184 153 
8 146 181 184 153 147 182 185 154 
8 152 183 186 159 153 184 187 160 
8 153 184 187 160 154 185 188 161 
8 162 189 192 165 163 190 193 166 
8 163 190 193 166 164 191 194 167 
8 165 192 199 168 166 193 200 169 
8 166 193 200 169 167 194 201 170 
8 168 199 206 171 169 200 207 172 
8 169 200 207 172 170 201 208 173 
8 171 206 213 174 172 207 214 175 
8 172 207 214 175 173 208 215 176 
8 174 213 216 177 175 214 217 178 
8 175 214 217 178 176 215 218 179 
8 177 216 221 180 178 217 222 181 
8 178 217 222 181 179 218 223 182 
8 180 221 226 183 181 222 227 184 
8 181 222 227 184 182 223 228 185 
8 183 226 231 186 184 227 232 187 
8 184 227 232 187 185 228 233 188 
8 189 234 237 192 190 235 238 193 
8 190 235 238 193 191 236 239 194 
8 192 237 244 199 193 238 245 200 
8 193 238 245 200 194 239 246 201 
8 194 239 246 201 195 240 247 202 
8 195 240 247 202 196 241 248 203 
8 196 241 248 203 197 242 249 204 
8 197 242 249 204 198 243 250 205 
8 199 244 251 206 200 245 252 207 
8 200 245 252 207 201 246 253 208 
8 201 246 253 208 202 247 254 209 
8 202 247 254 209 203 248 255 210 
8 203 248 255 210 204 249 256 211 
8 204 249 256 211 205 250 257 212 
8 206 251 258 213 207 252 259 214 
8 207 252 259 214 208 253 260 215 
8 213 258 261 216 214 259 262 217 
8 214 259 262 217 215 260 263 218 
8 216 261 266 221 217 262 267 222 
8 217 262 267 222 218 263 268 223 
8 218 263 268 223 219 264 269 224 
8 219 264 269 224 220 265 270 225 
8 221 266 271 226 222 267 272 227 
8 222 267 272 227 223 268 273 228 
8 223 268 273 228 224 269 274 229 
8 224 269 274 229 225 270 275 230 
8 226 271 276 231 227 272 277 232 
8 227 272 277 232 228 273 278 233 
8 234 279 282 237 235 280 283 238 
8 235 280 283 238 236 281 284 239 
8 237 282 289 244 238 283 290 245 
8 238 283 290 245 239 284 291 246 
8 239 284 291 246 240 285 292 247 
8 240 285 292 247 241 286 293 248 
8 241 286 293 248 242 287 294 249 
8 242 287 294 249 243 288 295 250 
8 244 289 296 251 245 290 297 252 
8 245 290 297 252 246 291 298 253 
8 246 291 298 253 247 292 299 254 
8 247 292 299 254 248 293 300 255 
8 248 293 300 255 249 294 301 256 
8 249 294 301 256 250 295 302 257 
8 251 296 303 258 252 297 304 259 
8 252 297 304 259 253 298 305 260 
8 258 303 306 261 259 304 307 262 
8 259 304 307 262 260 305 308 263 
8 261 306 311 266 262 307 312 267 
8 262 307 312 267 263 308 313 268 
8 263 308 313 268 264 309 314 269 
8 264 309 314 269 265 310 315 270 
8 266 311 316 271 267 312 317 272 
8 267 312 317 272 268 313 318 273 
8 268 313 318 273 269 314 319 274 
8 269 314 319 274 270 315 320 275 
8 271 316 321 276 272 317 322 277 
8 272 317 322 277 273 318 323 278 
8 279 324 327 282 280 325 328 283 
8 280 325 328 283 281 326 329 284 
8 282 327 330 289 283 328 331 290 
8 283 328 331 290 284 329 332 291 
8 289 330 333 296 290 331 334 297 
8 290 331 334 297 291 332 335 298 
8 296 333 336 303 297 334 337 304 
8 297 334 337 304 298 335 338 305 
8 303 336 339 306 304 337 340 307 
8 304 337 340 307 305 338 341 308 
8 306 339 342 311 307 340 343 312 
8 307 340 343 312 308 341 344 313 
8 311 342 345 316 312 343 346 317 
8 312 343 346 317 313 344 347 318 
8 316 345 348 321 317 346 349 322 
8 317 346 349 322 318 347 350 323 

CELL_TYPES 176
12
12
12
12
12
12
12
12
12
12
12
12
12
12
12
12
12
12
12
12
12
12
12
12
12
12
12
12
12
12
12
12
12
12
12
12
12
12
12
12
12
12
12
12
12
12
12
12
12
12
12
12
12
12
12
12
12
12
12
12
12
12
12
12
12
12
12
12
12
12
12
12
12
12
12
12
12
12
12
12
12
12
12
12
12
12
12
12
12
12
12
12
12
12
12
12
12
12
12
12
12
12
12
12
12
12
12
12
12
12
12
12
12
12
12
12
12
12
12
12
12
12
12
12
12
12
12
12
12
12
12
12
12
12
12
12
12
12
12
12
12
12
12
12
12
12
12
12
12
12
12
12
12
12
12
12
12
12
12
12
12
12
12
12
12
12
12
12
12
12
12
12
12
12
12
12

POINT_DATA 351

SCALARS node_groups int 1
LOOKUP_TABLE default
0
0
0
0
0
0
0
0
0
0
0
0
0
0
0
0
0
0
0
0
0
0
0
0
0
0
0
0
0
0
0
0
0
0
0
0
0
0
0
0
0
0
0
0
0
0
0
0
0
0
0
0
0
0
0
0
0
0
0
0
0
0
0
0
0
0
0
0
0
0
0
0
0
0
0
0
0
0
0
0
0
0
0
0
0
0
0
0
0
0
0
0
0
0
0
0
0
0
0
0
0
0
0
0
0
0
0
0
0
0
0
0
0
0
0
0
0
0
0
0
0
0
0
0
0
0
0
0
0
0
0
0
0
0
0
0
0
0
0
0
0
0
0
0
0
0
0
0
0
0
0
0
0
0
0
0
0
0
0
0
0
0
0
0
0
0
0
0
0
0
0
0
0
0
0
0
0
0
0
0
0
0
0
0
0
0
0
0
0
0
0
0
0
0
0
0
0
0
0
0
0
0
0
0
0
0
0
0
0
0
0
0
0
0
0
0
0
0
0
0
0
0
0
0
0
0
0
0
0
0
0
0
0
0
0
0
0
0
0
0
0
0
0
0
0
0
0
0
0
0
0
0
0
0
0
0
0
0
0
0
0
0
0
0
0
0
0
0
0
0
0
0
0
0
0
0
0
0
0
0
0
0
0
0
0
0
0
0
0
0
0
0
0
0
0
0
0
0
0
0
0
0
0
0
0
0
0
0
0
0
0
0
0
0
0
0
0
0
0
0
0
0
0
0
0
0
0
0
0
0
0
0
0
0
0
0
0
0
0
0
0
0
0
0
0
0
0
0
0
0
0

CELL_DATA 176
SCALARS mat_id int 1
LOOKUP_TABLE default
0
0
0
0
0
0
0
0
0
0
0
0
0
0
0
0
0
0
0
0
0
0
0
0
0
0
0
0
0
0
0
0
0
0
0
0
0
0
0
0
0
0
0
0
0
0
0
0
0
0
0
0
0
0
0
0
0
0
0
0
0
0
0
0
0
0
0
0
0
0
0
0
0
0
0
0
0
0
0
0
0
0
0
0
0
0
0
0
0
0
0
0
0
0
0
0
0
0
0
0
0
0
0
0
0
0
0
0
0
0
0
0
0
0
0
0
0
0
0
0
0
0
0
0
0
0
0
0
0
0
0
0
0
0
0
0
0
0
0
0
0
0
0
0
0
0
0
0
0
0
0
0
0
0
0
0
0
0
0
0
0
0
0
0
0
0
0
0
0
0
0
0
0
0
0
0
